LAMMPS Description

191 atoms
190 bonds

4 atom types
1 bond types

-30 30 xlo xhi
-30 30 ylo yhi
-25 25 zlo zhi

Atoms # id mol type q xu yu zu

1 1 1   -19.00000 0.00000 0.00000
2 1 1   -18.80000 0.00000 0.00000
3 1 1   -18.60000 0.00000 0.00000
4 1 1   -18.40000 0.00000 0.00000
5 1 1   -18.20000 0.00000 0.00000
6 1 1   -18.00000 0.00000 0.00000
7 1 1   -17.80000 0.00000 0.00000
8 1 1   -17.60000 0.00000 0.00000
9 1 1   -17.40000 0.00000 0.00000
10 1 1   -17.20000 0.00000 0.00000
11 1 1   -17.00000 0.00000 0.00000
12 1 1   -16.80000 0.00000 0.00000
13 1 1   -16.60000 0.00000 0.00000
14 1 1   -16.40000 0.00000 0.00000
15 1 1   -16.20000 0.00000 0.00000
16 1 1   -16.00000 0.00000 0.00000
17 1 1   -15.80000 0.00000 0.00000
18 1 1   -15.60000 0.00000 0.00000
19 1 1   -15.40000 0.00000 0.00000
20 1 1   -15.20000 0.00000 0.00000
21 1 1   -15.00000 0.00000 0.00000
22 1 1   -14.80000 0.00000 0.00000
23 1 1   -14.60000 0.00000 0.00000
24 1 1   -14.40000 0.00000 0.00000
25 1 1   -14.20000 0.00000 0.00000
26 1 1   -14.00000 0.00000 0.00000
27 1 1   -13.80000 0.00000 0.00000
28 1 1   -13.60000 0.00000 0.00000
29 1 1   -13.40000 0.00000 0.00000
30 1 1   -13.20000 0.00000 0.00000
31 1 1   -13.00000 0.00000 0.00000
32 1 1   -12.80000 0.00000 0.00000
33 1 1   -12.60000 0.00000 0.00000
34 1 1   -12.40000 0.00000 0.00000
35 1 1   -12.20000 0.00000 0.00000
36 1 1   -12.00000 0.00000 0.00000
37 1 1   -11.80000 0.00000 0.00000
38 1 1   -11.60000 0.00000 0.00000
39 1 1   -11.40000 0.00000 0.00000
40 1 1   -11.20000 0.00000 0.00000
41 1 1   -11.00000 0.00000 0.00000
42 1 1   -10.80000 0.00000 0.00000
43 1 1   -10.60000 0.00000 0.00000
44 1 1   -10.40000 0.00000 0.00000
45 1 1   -10.20000 0.00000 0.00000
46 1 1   -10.00000 0.00000 0.00000
47 1 1   -9.80000 0.00000 0.00000
48 1 1   -9.60000 0.00000 0.00000
49 1 1   -9.40000 0.00000 0.00000
50 1 1   -9.20000 0.00000 0.00000
51 1 1   -9.00000 0.00000 0.00000
52 1 1   -8.80000 0.00000 0.00000
53 1 1   -8.60000 0.00000 0.00000
54 1 1   -8.40000 0.00000 0.00000
55 1 1   -8.20000 0.00000 0.00000
56 1 1   -8.00000 0.00000 0.00000
57 1 1   -7.80000 0.00000 0.00000
58 1 1   -7.60000 0.00000 0.00000
59 1 1   -7.40000 0.00000 0.00000
60 1 1   -7.20000 0.00000 0.00000
61 1 1   -7.00000 0.00000 0.00000
62 1 1   -6.80000 0.00000 0.00000
63 1 1   -6.60000 0.00000 0.00000
64 1 1   -6.40000 0.00000 0.00000
65 1 1   -6.20000 0.00000 0.00000
66 1 1   -6.00000 0.00000 0.00000
67 1 1   -5.80000 0.00000 0.00000
68 1 1   -5.60000 0.00000 0.00000
69 1 1   -5.40000 0.00000 0.00000
70 1 1   -5.20000 0.00000 0.00000
71 1 1   -5.00000 0.00000 0.00000
72 1 1   -4.80000 0.00000 0.00000
73 1 1   -4.60000 0.00000 0.00000
74 1 1   -4.40000 0.00000 0.00000
75 1 1   -4.20000 0.00000 0.00000
76 1 1   -4.00000 0.00000 0.00000
77 1 1   -3.80000 0.00000 0.00000
78 1 1   -3.60000 0.00000 0.00000
79 1 1   -3.40000 0.00000 0.00000
80 1 1   -3.20000 0.00000 0.00000
81 1 1   -3.00000 0.00000 0.00000
82 1 1   -2.80000 0.00000 0.00000
83 1 1   -2.60000 0.00000 0.00000
84 1 1   -2.40000 0.00000 0.00000
85 1 1   -2.20000 0.00000 0.00000
86 1 1   -2.00000 0.00000 0.00000
87 1 1   -1.80000 0.00000 0.00000
88 1 1   -1.60000 0.00000 0.00000
89 1 1   -1.40000 0.00000 0.00000
90 1 1   -1.20000 0.00000 0.00000
91 1 1   -1.00000 0.00000 0.00000
92 1 1   -0.80000 0.00000 0.00000
93 1 1   -0.60000 0.00000 0.00000
94 1 1   -0.40000 0.00000 0.00000
95 1 1   -0.20000 0.00000 0.00000
96 1 1   0.00000 0.00000 0.00000
97 1 1   0.20000 0.00000 0.00000
98 1 1   0.40000 0.00000 0.00000
99 1 1   0.60000 0.00000 0.00000
100 1 1   0.80000 0.00000 0.00000
101 1 1   1.00000 0.00000 0.00000
102 1 1   1.20000 0.00000 0.00000
103 1 1   1.40000 0.00000 0.00000
104 1 1   1.60000 0.00000 0.00000
105 1 1   1.80000 0.00000 0.00000
106 1 1   2.00000 0.00000 0.00000
107 1 1   2.20000 0.00000 0.00000
108 1 1   2.40000 0.00000 0.00000
109 1 1   2.60000 0.00000 0.00000
110 1 1   2.80000 0.00000 0.00000
111 1 1   3.00000 0.00000 0.00000
112 1 1   3.20000 0.00000 0.00000
113 1 1   3.40000 0.00000 0.00000
114 1 1   3.60000 0.00000 0.00000
115 1 1   3.80000 0.00000 0.00000
116 1 1   4.00000 0.00000 0.00000
117 1 1   4.20000 0.00000 0.00000
118 1 1   4.40000 0.00000 0.00000
119 1 1   4.60000 0.00000 0.00000
120 1 1   4.80000 0.00000 0.00000
121 1 1   5.00000 0.00000 0.00000
122 1 1   5.20000 0.00000 0.00000
123 1 1   5.40000 0.00000 0.00000
124 1 1   5.60000 0.00000 0.00000
125 1 1   5.80000 0.00000 0.00000
126 1 1   6.00000 0.00000 0.00000
127 1 1   6.20000 0.00000 0.00000
128 1 1   6.40000 0.00000 0.00000
129 1 1   6.60000 0.00000 0.00000
130 1 1   6.80000 0.00000 0.00000
131 1 1   7.00000 0.00000 0.00000
132 1 1   7.20000 0.00000 0.00000
133 1 1   7.40000 0.00000 0.00000
134 1 1   7.60000 0.00000 0.00000
135 1 1   7.80000 0.00000 0.00000
136 1 1   8.00000 0.00000 0.00000
137 1 1   8.20000 0.00000 0.00000
138 1 1   8.40000 0.00000 0.00000
139 1 1   8.60000 0.00000 0.00000
140 1 1   8.80000 0.00000 0.00000
141 1 1   9.00000 0.00000 0.00000
142 1 1   9.20000 0.00000 0.00000
143 1 1   9.40000 0.00000 0.00000
144 1 1   9.60000 0.00000 0.00000
145 1 1   9.80000 0.00000 0.00000
146 1 1   10.00000 0.00000 0.00000
147 1 1   10.20000 0.00000 0.00000
148 1 1   10.40000 0.00000 0.00000
149 1 1   10.60000 0.00000 0.00000
150 1 1   10.80000 0.00000 0.00000
151 1 1   11.00000 0.00000 0.00000
152 1 1   11.20000 0.00000 0.00000
153 1 1   11.40000 0.00000 0.00000
154 1 1   11.60000 0.00000 0.00000
155 1 1   11.80000 0.00000 0.00000
156 1 1   12.00000 0.00000 0.00000
157 1 1   12.20000 0.00000 0.00000
158 1 1   12.40000 0.00000 0.00000
159 1 1   12.60000 0.00000 0.00000
160 1 1   12.80000 0.00000 0.00000
161 1 1   13.00000 0.00000 0.00000
162 1 1   13.20000 0.00000 0.00000
163 1 1   13.40000 0.00000 0.00000
164 1 1   13.60000 0.00000 0.00000
165 1 1   13.80000 0.00000 0.00000
166 1 1   14.00000 0.00000 0.00000
167 1 1   14.20000 0.00000 0.00000
168 1 1   14.40000 0.00000 0.00000
169 1 1   14.60000 0.00000 0.00000
170 1 1   14.80000 0.00000 0.00000
171 1 1   15.00000 0.00000 0.00000
172 1 1   15.20000 0.00000 0.00000
173 1 1   15.40000 0.00000 0.00000
174 1 1   15.60000 0.00000 0.00000
175 1 1   15.80000 0.00000 0.00000
176 1 1   16.00000 0.00000 0.00000
177 1 1   16.20000 0.00000 0.00000
178 1 1   16.40000 0.00000 0.00000
179 1 1   16.60000 0.00000 0.00000
180 1 1   16.80000 0.00000 0.00000
181 1 1   17.00000 0.00000 0.00000
182 1 1   17.20000 0.00000 0.00000
183 1 1   17.40000 0.00000 0.00000
184 1 1   17.60000 0.00000 0.00000
185 1 1   17.80000 0.00000 0.00000
186 1 1   18.00000 0.00000 0.00000
187 1 1   18.20000 0.00000 0.00000
188 1 1   18.40000 0.00000 0.00000
189 1 1   18.60000 0.00000 0.00000
190 1 1   18.80000 0.00000 0.00000
191 1 1   19.00000 0.00000 0.00000


Bonds

1 1 1 2
2 1 2 3
3 1 3 4
4 1 4 5
5 1 5 6
6 1 6 7
7 1 7 8
8 1 8 9
9 1 9 10
10 1 10 11
11 1 11 12
12 1 12 13
13 1 13 14
14 1 14 15
15 1 15 16
16 1 16 17
17 1 17 18
18 1 18 19
19 1 19 20
20 1 20 21
21 1 21 22
22 1 22 23
23 1 23 24
24 1 24 25
25 1 25 26
26 1 26 27
27 1 27 28
28 1 28 29
29 1 29 30
30 1 30 31
31 1 31 32
32 1 32 33
33 1 33 34
34 1 34 35
35 1 35 36
36 1 36 37
37 1 37 38
38 1 38 39
39 1 39 40
40 1 40 41
41 1 41 42
42 1 42 43
43 1 43 44
44 1 44 45
45 1 45 46
46 1 46 47
47 1 47 48
48 1 48 49
49 1 49 50
50 1 50 51
51 1 51 52
52 1 52 53
53 1 53 54
54 1 54 55
55 1 55 56
56 1 56 57
57 1 57 58
58 1 58 59
59 1 59 60
60 1 60 61
61 1 61 62
62 1 62 63
63 1 63 64
64 1 64 65
65 1 65 66
66 1 66 67
67 1 67 68
68 1 68 69
69 1 69 70
70 1 70 71
71 1 71 72
72 1 72 73
73 1 73 74
74 1 74 75
75 1 75 76
76 1 76 77
77 1 77 78
78 1 78 79
79 1 79 80
80 1 80 81
81 1 81 82
82 1 82 83
83 1 83 84
84 1 84 85
85 1 85 86
86 1 86 87
87 1 87 88
88 1 88 89
89 1 89 90
90 1 90 91
91 1 91 92
92 1 92 93
93 1 93 94
94 1 94 95
95 1 95 96
96 1 96 97
97 1 97 98
98 1 98 99
99 1 99 100
100 1 100 101
101 1 101 102
102 1 102 103
103 1 103 104
104 1 104 105
105 1 105 106
106 1 106 107
107 1 107 108
108 1 108 109
109 1 109 110
110 1 110 111
111 1 111 112
112 1 112 113
113 1 113 114
114 1 114 115
115 1 115 116
116 1 116 117
117 1 117 118
118 1 118 119
119 1 119 120
120 1 120 121
121 1 121 122
122 1 122 123
123 1 123 124
124 1 124 125
125 1 125 126
126 1 126 127
127 1 127 128
128 1 128 129
129 1 129 130
130 1 130 131
131 1 131 132
132 1 132 133
133 1 133 134
134 1 134 135
135 1 135 136
136 1 136 137
137 1 137 138
138 1 138 139
139 1 139 140
140 1 140 141
141 1 141 142
142 1 142 143
143 1 143 144
144 1 144 145
145 1 145 146
146 1 146 147
147 1 147 148
148 1 148 149
149 1 149 150
150 1 150 151
151 1 151 152
152 1 152 153
153 1 153 154
154 1 154 155
155 1 155 156
156 1 156 157
157 1 157 158
158 1 158 159
159 1 159 160
160 1 160 161
161 1 161 162
162 1 162 163
163 1 163 164
164 1 164 165
165 1 165 166
166 1 166 167
167 1 167 168
168 1 168 169
169 1 169 170
170 1 170 171
171 1 171 172
172 1 172 173
173 1 173 174
174 1 174 175
175 1 175 176
176 1 176 177
177 1 177 178
178 1 178 179
179 1 179 180
180 1 180 181
181 1 181 182
182 1 182 183
183 1 183 184
184 1 184 185
185 1 185 186
186 1 186 187
187 1 187 188
188 1 188 189
189 1 189 190
190 1 190 191


# Define mass of nucleotides
Masses

1 15.0  # Adenine
2 15.0  # Thymine
3 14.0  # Cytosine
4 17.0  # Guanine
